BEGIN_CFG
 Size
    201
 Supercell
        13.984555      0.000000      0.000000
         0.000000     13.984555      0.000000
         0.000000      0.000000     13.984555
 AtomData:  id type       cartes_x      cartes_y      cartes_z           fx          fy          fz
             1    0       6.960760      1.175870      6.408960     0.582792    1.898963   -3.325375
             2    0       1.091890     10.788980      6.267750    -0.119785    0.539799   -2.365606
             3    0      10.945300     10.169730     12.107240     1.698548    4.907647  -22.299990
             4    0       8.144840      3.000450     10.809470    -4.927181    0.861082   -3.287010
             5    0       1.448160      5.690570      6.313410     0.273483   -2.422506    1.826638
             6    0       3.023070      7.542200      4.517590    -1.399599   -0.312954   -3.029850
             7    0       8.050990      3.318680      0.343000    -4.207417   -0.054666    0.369449
             8    0      13.518920      7.275710     13.693800     3.689128   -3.251447   -1.783453
             9    0       2.744790      7.074280      9.953980    -0.438222    1.746684    0.769374
            10    0       0.120290      4.851680      3.304540     3.714948   -1.138718    3.669272
            11    0       8.088000      0.538190     10.836310    -3.012706    2.476975   -3.451524
            12    0       6.200350     12.831090      3.270130    -3.432079    4.854840   -5.453343
            13    0       5.182070      3.626880      1.893920    -6.791013   -1.080360   -0.683208
            14    0       2.889740      2.845310      4.405730     1.029979   -1.276097    1.204099
            15    0       5.378100     13.156330      9.933500    -2.517473   -0.077854    2.373346
            16    0       9.254860      0.374500      4.647880    -1.405211   -1.173527    1.182237
            17    0       5.175800      3.056490     12.712780     4.392899    2.014195    2.693176
            18    0       4.018930     10.969100      7.524850     1.780958   -6.832485    0.880748
            19    0      13.279760     10.638840     12.993540    -1.877090   -4.974001    0.588785
            20    0       5.819360      3.737450      4.400080     0.505162   -0.910639    4.839555
            21    0      11.421510      1.957080      3.462460    -2.295685   -3.656886   -2.780765
            22    0      12.816970      6.019700     10.761160     0.663617   -2.366248   -2.425115
            23    0      12.835840     12.086420      7.534730    -2.547006   -0.541497    3.483006
            24    0       1.885770      3.626700      1.226910     4.650969   -0.895842   -6.968891
            25    0      13.826910      9.530720      3.466220    -4.136727    2.809447   -2.238302
            26    0       8.466760     11.954730      8.928570    -2.653510   -0.290979   -1.763594
            27    0       8.432390      7.959110     11.431860    -3.716825    3.278422   -7.608473
            28    0       3.292260      7.936630     12.999910     0.954004    4.916670   -3.050950
            29    0       6.535680     12.574280      0.741760    -5.272958    3.546319    1.408822
            30    0       4.974520      7.909500      7.928250     9.836500    7.056456   -7.024871
            31    0       0.575950      3.153670      9.085510    -3.321556    1.519245    0.813633
            32    0       1.087520      1.652280      2.180040     0.431373   -5.316892   -3.857539
            33    0       9.147370      6.050530      3.879210    -0.404714   -0.361289   -1.204074
            34    0      12.453640      0.673690      0.430040    10.073349   -5.114253    4.271074
            35    0       2.972850      4.177090      8.653920     3.724973   -4.037846   -3.506568
            36    0       5.257470     12.743070      5.758200    -0.570845    2.446587   -1.011743
            37    0       1.181930     11.315580     10.650080     1.867209    0.198912    5.441633
            38    0      10.498910      7.982630     13.604750     2.063388   -0.375700    3.005053
            39    0       1.547080      0.855740      6.505390     0.049707   -3.348843    1.057119
            40    0      10.332120     13.296060      1.674500     1.713014   -2.302708   -3.874982
            41    0       7.287600      9.607940      3.759560    -1.395168   -0.624943    3.054089
            42    0      10.923210      2.738550     13.823510     1.490151   -0.957942   -1.894822
            43    0       2.799830      6.659680      0.949730    -8.571330   -9.708737    6.878806
            44    0      13.816220      7.583130      6.255860    -0.147228    1.346207    4.256792
            45    0       7.100350      5.807500      1.389770    -0.000123   -0.383338   -0.878865
            46    0       5.808630      9.582840     12.110760    -1.484371    0.143930    1.268339
            47    0      11.166470     12.555360     12.812390     3.028826    4.869805    2.523250
            48    0       6.611330      8.450050      1.220050    -1.601923    0.908121   -5.476617
            49    0       9.249830      3.061380      3.230490    -8.263738    2.416297    0.545514
            50    0      13.669150      4.329800     13.358180    -4.143159    3.993144   -0.981478
            51    0       6.434800      5.299310     11.422210     3.699453    2.424089   -9.253295
            52    0       4.613530      5.559920      6.272350     4.526017    0.897088   -0.847219
            53    0      10.363000     10.532660      8.871650     4.961273    1.097025   -1.284931
            54    0      12.249900      1.005070      9.787720     0.133911   -1.763462    0.420708
            55    0       1.574600     13.879610      0.114290    -3.258821   -2.843087    0.021203
            56    0       2.572340      1.448810      9.541050     2.155434    0.623645   -1.556659
            57    0       9.474510      7.576010      8.425430    -0.833563    3.230234    1.331405
            58    0       1.613650     12.981770      8.416520     1.773421   -1.413878    0.951891
            59    0       7.527920      9.684770      6.818070     0.870935   -1.814936   -0.277923
            60    0      12.525840     11.964680      3.728250     1.689479   -4.015363   -0.484075
            61    0      11.428560      4.215440      7.660150    -2.137646    0.282835   -1.445468
            62    0      10.821480      5.824410     11.932270    -2.692687    3.842706    2.566823
            63    0      10.751630      8.563870      2.759060     3.501565   -2.322350    8.418193
            64    0      10.377000     10.009290      5.268780    -2.115075    2.313117   -0.193268
            65    0       4.498030      0.248680     12.541450    -1.705657   -3.390206    2.326191
            66    0       9.636920      1.833790      7.499010     4.373354   -0.240206   -3.893061
            67    0       3.472360     10.758010     12.765470    -4.781114    0.323868    1.470105
            68    1       7.439020      2.036850      9.660640     1.237289   -1.537288    2.635864
            69    1       1.349160      1.673130      8.087710    -1.123124    0.455039    0.909610
            70    1       0.246930     11.293030      4.814090    -0.521624   -1.372263    0.121333
            71    1       4.069080      7.525580      8.896290    -8.415935   -3.755202    8.987169
            72    1       4.381050      3.010840      5.162920     1.160156    2.074675    0.243044
            73    1       2.724070      2.221480      1.657530    -4.583803    1.680684   -6.178582
            74    1       1.339510     13.912000      1.795510    -0.955783    3.529974    0.238447
            75    1       1.823220     13.333050      5.880150    -0.597106    2.447653    1.549624
            76    1      12.213630     10.590770      8.608430     0.678833    2.679486    0.448589
            77    1      11.068570      0.678400      2.063980     3.332143    7.120246   -1.742072
            78    1       1.917520      3.098900     10.321860    -1.737953   -2.153587   -3.133626
            79    1       5.288020     13.621160     13.842060     1.430662   -0.232100   -0.222092
            80    1       3.028160     11.860870      8.141680    -6.525164    6.312854    3.687839
            81    1      10.356030      8.539670      1.346470    -2.848735   -1.175724   -6.221183
            82    1       2.970770      5.360390      9.618320    -0.507922    4.900444    2.853404
            83    1       0.962500      6.782690      7.760880     0.415038   -1.403131   -5.661444
            84    1      12.238610      7.830430      0.275800    -5.114448    4.410844    0.010630
            85    1       4.944450     11.148700     12.376530     3.763720   -2.495362   -0.309346
            86    1      13.176460     11.081850      2.547800     2.404849   -2.307984    0.460668
            87    1       6.180140      6.517330     10.023770    -1.015751   -1.785115    1.229097
            88    1       0.513190     11.314610     12.516550     6.467256    3.686820   -7.538640
            89    1      10.627050      9.735840     13.317580    -5.901837   -7.151406   21.580297
            90    1       9.524430      5.100720      7.046520     2.396148    1.355965    1.403358
            91    1       0.976600      4.354570      5.015040     0.036452    1.218947   -1.129150
            92    1       8.664990     10.260030      5.596200     1.866474    0.070569   -1.452081
            93    1       9.856000     12.748380     13.658460    -1.127798    2.809339    6.648714
            94    1       7.587010      4.412040     10.200200    -0.372752    1.035732    4.148327
            95    1       6.829260      7.011020      0.313060    -0.489005    2.940594    3.261536
            96    1      13.606690      6.719200      9.603250     2.142566    0.037129   -0.828369
            97    1       0.448870      9.360980      6.420800    -3.501239   -4.977228    0.098746
            98    1       6.264260      3.160820      2.898480    -0.172600   -1.281928    5.614946
            99    1      12.761990      2.350940      3.875480     5.542387    0.438091    1.471882
           100    1      12.092910      3.839320      0.115870    -1.479525   -3.169441   -0.667322
           101    1      10.453970     11.493250      7.412470    -2.241200    0.973474    1.314770
           102    1       6.455840      0.077480     10.933750     0.400017   -0.402499    2.902888
           103    1      10.368580      6.061330     13.715200     2.901790    0.300393   -2.783593
           104    1      13.042530      5.786090      0.276890     4.102047   -3.306690   -0.766151
           105    1       9.099630      7.367770     12.641260     2.254341    1.212385    5.471705
           106    1       8.607150      8.909460      2.960570    -1.257138    1.887245    0.985632
           107    1      10.685650      3.210520      2.736880     2.562786    3.605071   -4.160304
           108    1       9.221300      1.994060     11.269570     2.925432   -3.761433    2.142463
           109    1      10.423030      8.824640     11.259470    -1.985716    1.010589   -0.369474
           110    1      13.300830      4.484020      8.740690     0.019147   -2.785547    0.172642
           111    1       4.987810      1.685450     12.058080    -2.643233    0.924093   -1.613859
           112    1       4.643140      0.303220      9.114830    -0.807095    1.624926   -3.467436
           113    1       1.785000     13.862000      9.875190     1.041314    1.600114   -1.199712
           114    1       2.638290      6.902020      3.028520     1.186308   -0.274992   -0.870619
           115    1      10.367150     11.949750     11.738710    -1.887476   -6.741400   -6.048335
           116    1       8.761760      7.711840      9.850370    -0.345593   -2.948432    3.319359
           117    1       9.968110      0.625350      6.065570     1.850769   -2.095724    0.895281
           118    1      10.363480      3.083910      6.667190     1.109587   -0.031559    1.174908
           119    1       7.728900      4.959830      0.002060     0.575099   -3.329884    2.691809
           120    1      13.914530      0.097320     13.189830     2.106581    0.049394    2.227385
           121    1       7.596780     11.200220      7.561280     0.643055    1.551179    2.760277
           122    1      10.529590      8.484220      5.260290     0.624224   -0.279953    0.008515
           123    1       3.114760      5.549250      5.687580    -1.381067    1.077277   -0.012142
           124    1       5.332390     12.130870      1.996040     1.464356    0.704567   -1.479341
           125    1       6.045310      9.325440     13.769730     1.657280   -0.972942    3.665530
           126    1       2.477400      9.406770     12.918650     1.890098   -1.520354    0.503463
           127    1      13.413480      2.184430     10.211390    -0.807732   -1.461360   -2.775278
           128    1       7.663070      0.917640      4.895140     2.448321   -3.307083   -3.079137
           129    1       3.742290      2.475130      8.754860    -2.334092    2.040692    0.807656
           130    1      12.303550      6.971900      6.567710     3.454104    1.125149   -1.256453
           131    1      12.395400     11.849220     13.437470    -2.102155   -0.838164   -1.615837
           132    1       1.543960      4.538860      2.384010    -4.578907    3.134738    4.330394
           133    1       8.221860      1.372460      7.237470    -1.366996   -0.521070    4.586360
           134    1       9.861010     13.364500      3.145470    -4.845853   -1.232072    5.899442
           135    1      10.418570      1.827960      8.860020     2.886390   -1.468340    2.414154
           136    1       5.125380      4.636980     11.814260    -3.543667   -5.230707    3.780503
           137    1       1.710340     11.920980      0.556760     2.522810   -0.011501   -0.308012
           138    1       7.911020      6.359280      2.688460     1.555748    0.032829   -0.362551
           139    1       5.713630      5.114120      1.861340     1.963594    2.909906   -0.918395
           140    1       7.877630     13.429900      9.530270     3.743625   -3.647026   -3.196434
           141    1      11.266110      6.590640     10.124950    -0.382390   -1.482692    3.495599
           142    1       2.620550     10.305900      6.336630     2.033765    0.585846    1.305811
           143    1       2.931790      0.588760     13.660140     1.603948   -0.425495   -3.037334
           144    1       7.227560      6.563730     11.753410     1.834751    2.944159    1.645332
           145    1       1.219810      4.007110     13.603850     2.407303   -0.955121    2.806735
           146    1      12.953570      6.884660     12.069570     0.212705    2.954540    2.904716
           147    1       9.869290      1.850130      4.186460    -0.515724   -0.232061   -0.625029
           148    1       3.027060      6.810320     11.934500    -1.558415   -2.161205   -3.000902
           149    1      12.523960     12.982810      0.985240    -2.849385    5.668653    3.232401
           150    1       0.808780      8.539380      2.859970     2.333597   -0.212778    0.153085
           151    1       8.993360     10.837500     10.062120     1.294791    1.416666   -3.553319
           152    1       6.703000     11.577190      3.854360     3.624533   -7.816014    5.007210
           153    1       8.168670      4.499430      4.223700     5.277803   -1.395955   -1.778640
           154    1      12.398460      8.274120      3.347520    -0.330031    3.178957   -0.791163
           155    1       4.611920      4.674710      7.571070    -2.051460   -0.771271    2.008998
           156    1       7.050040      2.557050     12.649280     0.102621    3.591790    1.668452
           157    1       0.004520      1.967450      0.597450    -0.768844   -0.560360    3.919005
           158    1       1.128700      6.930660      5.260110    -1.606243    1.553704   -0.728663
           159    1      11.306010     10.672620      3.688640    -3.132708    0.021701    4.126919
           160    1      11.735750     13.763450     10.739430     0.469990    2.142430   -0.670895
           161    1       6.689180      2.611780      5.977200    -3.271475    6.041023   -2.538402
           162    1       4.752450     11.302370      6.219220     3.592299    3.277756   -3.514449
           163    1       2.481820      1.864100      5.884160     1.610198    4.090013   -3.103193
           164    1      12.130990     13.369560      4.034820    -0.150467    2.952296    1.355942
           165    1       0.587450     12.083210      7.418690    -0.498815   -4.258970   -0.795164
           166    1      12.450160     10.018310     11.625730     2.830721    0.923595    1.166469
           167    1       7.269380     13.700450      2.380500    -0.936693   -0.503818   -1.203282
           168    1       3.049200     11.153250      0.575610    -1.603988    2.085364   -1.999551
           169    1      11.186270      4.479860     11.344090    -1.610519   -3.869817    0.061645
           170    1       3.600190      5.120820      1.100020    -4.472163   -0.086252   -1.963600
           171    1       6.524070      9.211040      5.306020     1.936615    0.798770   -0.182203
           172    1       1.286060      7.230310     13.946160     1.845138   -0.907230    1.450655
           173    1       6.077150      5.484580      4.872610    -4.385376   -4.217706    1.165007
           174    1       8.125500      8.381630      7.932200    -5.588721    3.841352   -5.777408
           175    1       6.183990     13.847950      6.546250    -2.761019   -4.940830    1.401826
           176    1       3.806000      7.657470      0.765840     6.572811    7.827269   -5.322995
           177    1       7.456580     12.008850     13.665670     1.229928   -1.262971   -0.193337
           178    1      13.372180      4.514570     11.722220     2.146606    0.290333    0.832579
           179    1       7.997070      2.648110      2.040250     5.113693    1.211936   -3.047824
           180    1       1.514080      4.256450      7.734760     2.269903   -0.933761    0.621093
           181    1       4.833330     11.653830      9.730600     2.710296   -0.532419   -1.648562
           182    1      10.687950      6.835540      3.708310    -4.670331   -1.626228   -1.156659
           183    1       5.097060      2.770860      0.469580     0.387389    1.798585   -1.649988
           184    1       1.923890      8.518160      9.559030     1.186274   -2.810619    1.716026
           185    1       0.032400      9.882260      0.201170    -1.109278   -2.591098    0.554234
           186    1       9.638770      6.576680      7.183160     0.124769   -1.390654   -0.526605
           187    1      12.644470      5.208470      3.319380    -0.664214    0.339744   -0.543539
           188    1      11.463670      0.982640     13.320760    -4.908623    4.974382   -3.179756
           189    1       1.769500      2.053030      3.514740    -2.311848   -0.106630    5.188814
           190    1       9.292580      2.677040     13.675070     5.085340   -0.532277   -0.209316
           191    1       4.560350      8.553090     11.752080     0.383080    0.594614    2.225162
           192    1       4.137090     13.541510     11.083860    -1.057248    0.368296    4.285898
           193    1       7.024800      9.100860     11.174620     2.626704   -0.094989    1.109016
           194    1       5.409780      7.108290      6.638360    -1.335668   -1.263143   -0.366207
           195    1       2.644610     11.540480     11.620790    -1.583154    0.203649   -2.686239
           196    1       6.042420      8.625750      2.702490     1.201481    1.866439    0.697204
           197    1      13.296990     13.622100      8.342710    -1.568622    0.673318    0.359967
           198    1       4.414230     13.578580      4.654680     2.669387   -1.695070   -1.041595
           199    1      10.183840      9.088140      8.458130     1.586707   -4.007816   -1.335798
           200    1       3.834900      3.102840      2.985860     2.905928    3.307789   -0.378678
           201    1       5.518440      9.794760      7.938960    -2.821701   -4.094148   -0.648407
 Energy
      -1040.677932770000
 PlusStress:  xx          yy          zz          yz          xz          xy
       -17.18333   -36.03662   -83.68896   -18.95688   -44.94650    17.90747
 Feature   EFS_by	VASP
END_CFG

BEGIN_CFG
 Size
    201
 Supercell
        13.984555      0.000000      0.000000
         0.000000     13.984555      0.000000
         0.000000      0.000000     13.984555
 AtomData:  id type       cartes_x      cartes_y      cartes_z           fx          fy          fz
             1    0       7.699050      1.760880      6.822310    -4.707225    0.334647   -1.953120
             2    0       1.262360     11.094290      5.736750     3.765086   -1.693447   -4.429926
             3    0      11.342300     10.713490     11.285880     0.754331   -2.217234    3.471843
             4    0       8.126230      2.667520     12.377090     1.586040    1.268992   -5.941419
             5    0       1.249650      5.895540      5.957690     8.837598   -1.898867   -4.895524
             6    0       2.433350      7.140950      2.876780    -0.849486    0.894732    2.758056
             7    0       8.763260      3.647940      0.844700    -0.933736   -2.957670    3.143761
             8    0       0.262100      7.698650     13.141560    -0.897253   -1.292686   -0.136809
             9    0       3.474870      7.259160      9.460460     2.552049    0.996078    1.278917
            10    0       0.174520      3.998920      4.213950     4.544841    2.510034   -3.527932
            11    0       7.788470      0.545910     10.514680    -0.850283   -1.531151    0.724060
            12    0       6.590480     13.134560      2.790490    -1.839798   -0.141444   -2.088551
            13    0       4.762360      3.806620      2.279200     1.668374    0.570965    4.898308
            14    0       3.235080      3.016050      4.673510    -3.496323   -0.787906    8.863852
            15    0       4.949230     13.692480      9.530300    -1.498631    0.376996    2.209722
            16    0       9.015610      0.825890      4.784160    -1.623684    0.832095  -10.356730
            17    0       4.376970      4.126390     13.418210    -0.886438   -1.598526   -1.230556
            18    0       4.020890     11.259240      7.173250    -1.304329    0.667148   -2.035313
            19    0       0.052700     10.474110     12.035970    -6.526413    2.716147   -2.858493
            20    0       6.020800      3.790880      5.100400     0.732697   -6.605268    0.424919
            21    0      11.902040      3.945690      2.914310     2.100479    3.561146    5.082360
            22    0      13.810330      6.580620     10.294980     2.160998    1.903361   -2.954771
            23    0      13.009320     11.583720      8.224840     2.748320    0.896584    0.910174
            24    0       1.594850      3.266840      1.308750     2.320021   -5.246397   -0.758415
            25    0       0.078160     11.009690      3.374510     2.886892   -1.972382    1.227287
            26    0       7.693690     12.072860      8.797390     5.519355   -2.887331   -3.449900
            27    0       7.763920      8.167120     11.882080     2.821828   -1.680282   -1.841037
            28    0       3.485250      8.490700     12.502900     2.348745   -8.925884   -2.221002
            29    0       6.290130     13.043800      0.110830     0.708191    1.249709    1.945995
            30    0       5.698910      8.492560      7.956180     0.991053   -1.168621   -0.924381
            31    0      13.922740      2.627130      9.021010    -3.121369   -0.519587   -0.605800
            32    0       1.962750      0.988300      2.564460     1.149262    0.841117   -2.407174
            33    0       9.109930      5.945260      4.388840     0.576196    1.378930   -1.210173
            34    0      13.075350      0.726340      1.005740     3.164651   -2.819300    1.587260
            35    0       3.502960      4.765310      8.297840     3.113983    2.478259    3.884283
            36    0       6.097280     13.365120      5.453560    -2.063272   -0.826106   -1.269503
            37    0       1.001280     13.128370     11.030170     1.848134    1.393215   -1.233064
            38    0      10.068010      8.657040     13.652080     2.753018    5.820324   -1.839317
            39    0       1.242860      0.949090      6.966920    -2.388052    8.388794    0.997645
            40    0      10.224840      0.661690      2.050730     1.316587   -1.390350   -0.442343
            41    0       7.116240      9.973110      3.343730    -2.602530    1.387664    3.392400
            42    0      11.658200      2.711420      0.161050     6.617869    5.146287   -0.724742
            43    0       2.809950      6.334330      0.756080     2.831064   -0.796626   -6.138783
            44    0      12.520460      6.691330      6.697830     7.665320   10.677468    3.734374
            45    0       6.925420      6.038350      2.010590     6.390376    3.608070   -2.423971
            46    0       6.052930      9.740260     12.986380    -2.917320    0.413691   -7.872762
            47    0      10.549930     12.904830     12.651930     5.456450    5.139792    2.256722
            48    0       5.175920      8.394810      1.710370     2.884274   -1.106218   -4.473125
            49    0       9.489620      3.096530      4.033700    -4.271181    4.182037   -3.449665
            50    0       0.287450      4.655560     12.931070    -3.962379   -3.563983   -0.114038
            51    0       6.721020      5.411510     10.628300     3.358050    2.280136    2.045405
            52    0       4.897280      5.722740      5.981000    -6.623412    4.707358    0.409920
            53    0      10.600920     10.154340      8.185000    -2.890428    0.619717    2.676866
            54    0      12.195880     13.823160      9.910370     1.040459    3.557384   -1.686860
            55    0       1.878190     13.066280      0.313660     0.134632   -1.240415   -1.662522
            56    0       2.547060      2.404870      8.983590    -3.548353   -1.778454   -2.281591
            57    0       8.650410      8.164400      8.764630     2.789805    0.651037    3.644244
            58    0       1.544270     12.660340      7.702550    -6.200332   -1.395540    2.135378
            59    0       6.981360     10.274830      6.107930     2.230715    4.768809    5.173459
            60    0      11.676540     12.113380      3.883880     2.915756    4.111356   -2.000308
            61    0      11.792940      4.048320      7.055150     1.456068  -12.864234    4.116911
            62    0      11.965480      5.307680     11.404950    -8.227438  -15.013918   10.927784
            63    0      11.855410      7.563990      3.347720    -4.453273    0.434094   -0.276133
            64    0      10.020290      9.897840      4.635520    -4.027861    3.927116    0.725765
            65    0       3.879660      0.834190     12.406770     0.772433   -8.602304   -0.324154
            66    0      10.477880      1.228510      7.324900    -1.842536   -0.210855    1.228794
            67    0       3.858630     10.945360     12.045120    -7.690697    4.900865   -3.732400
            68    1       6.576620      1.740150      9.858420     3.572465   -0.097805    1.233646
            69    1       0.302610      2.338860      6.695840     0.538489   -3.144087    1.826071
            70    1       0.260430     10.108600      4.890520    -1.628249    1.372403   -2.658286
            71    1       5.224590      7.784080      9.380830    -1.785445    1.117858   -2.865856
            72    1       4.374830      3.959580      5.736070     2.315563    1.312169   -3.791373
            73    1       3.003320      1.790280      1.490630    -1.865919    4.766990    0.198016
            74    1       2.563830     13.646720      1.636880    -0.240238   -0.706958    3.041939
            75    1       1.797100     13.732950      6.242930     1.013295   -3.894637   -0.338240
            76    1      11.097890     10.711940      9.696290     2.696517    0.869337    0.712365
            77    1      12.302510      3.050650      1.778310     0.235925   -2.719611   -5.387130
            78    1       1.166910      3.679960      8.694570     0.935724   -3.196869    2.024523
            79    1       5.510210      0.397300     13.485960    -3.566365    0.072712   -1.002639
            80    1       3.023300     12.441170      8.023560     6.456692   -1.562307   -0.258720
            81    1      10.907090      8.427100      2.013130    -2.043897   -1.771737    1.637019
            82    1       3.775410      5.692750      9.841180    -1.378683   -2.495646   -3.053987
            83    1       0.448750      5.816700      7.189780    -6.746234    0.644350    4.456091
            84    1      11.816170      7.887440     13.299460     6.133837    3.455635   -1.829529
            85    1       5.300490     11.123600     12.190540     9.197401   -1.335228    1.310662
            86    1      13.114180     11.930820      2.455750    -1.720593   -0.174805    2.796845
            87    1       7.518220      5.694350      9.170010    -1.935597   -0.730351    2.868040
            88    1       0.831180     11.739880     11.764580     1.868401    0.859031    0.616348
            89    1      11.135470      9.525820      1.030650    -1.634198   -1.445134   -0.671302
            90    1       9.383530      6.719320      7.333560     1.246793   -3.398534   -0.873918
            91    1       1.781710      4.329770      5.047330    -3.430405   -0.064823   -1.703691