LAMMPS data file via CFG → data

2 atoms
1 atom types

0.000000 10.000000 xlo xhi
0.000000 10.000000 ylo yhi
0.000000 10.000000 zlo zhi

Masses

1 1.00000

Atoms # atomic

1 1 0.000000 0.000000 0.000000
2 1 0.000000 0.000000 0.650000

