BEGIN_CFG
 Size
    2
 Supercell
        10.000000      0.000000      0.000000
         0.000000     10.000000      0.000000
         0.000000      0.000000     10.000000
 AtomData:  id type       cartes_x      cartes_y      cartes_z           fx          fy          fz
             1    0       0.000000      0.000000      0.000000    -0.000000   -0.000000   -4.867791
             2    0       0.000000      0.000000      0.650000     0.000000    0.000000    4.867791
 Energy
         -6.542273720000
 PlusStress:  xx          yy          zz          yz          xz          xy
        -0.13529    -0.13529     3.03673     0.00000     0.00000     0.00000
 Feature   EFS_by	VASP
END_CFG

BEGIN_CFG
 Size
    2
 Supercell
        10.000000      0.000000      0.000000
         0.000000     10.000000      0.000000
         0.000000      0.000000     10.000000
 AtomData:  id type       cartes_x      cartes_y      cartes_z           fx          fy          fz
             1    0       0.000000      0.000000      0.000000    -0.000000    0.000000   -4.220931
             2    0       0.000000      0.000000      0.660000     0.000000   -0.000000    4.220931
 Energy
         -6.587679220000
 PlusStress:  xx          yy          zz          yz          xz          xy
        -0.13342    -0.13342     2.65333     0.00000     0.00000     0.00000
 Feature   EFS_by	VASP
END_CFG

BEGIN_CFG
 Size
    2
 Supercell
        10.000000      0.000000      0.000000
         0.000000     10.000000      0.000000
         0.000000      0.000000     10.000000
 AtomData:  id type       cartes_x      cartes_y      cartes_z           fx          fy          fz
             1    0       0.000000      0.000000      0.000000     0.000000    0.000000   -3.617616
             2    0       0.000000      0.000000      0.670000    -0.000000   -0.000000    3.617616
 Energy
         -6.626836690000
 PlusStress:  xx          yy          zz          yz          xz          xy
        -0.13173    -0.13173     2.28661     0.00000     0.00000     0.00000
 Feature   EFS_by	VASP
END_CFG

BEGIN_CFG
 Size
    2
 Supercell
        10.000000      0.000000      0.000000
         0.000000     10.000000      0.000000
         0.000000      0.000000     10.000000
 AtomData:  id type       cartes_x      cartes_y      cartes_z           fx          fy          fz
             1    0       0.000000      0.000000      0.000000     0.000000    0.000000   -3.054623
             2    0       0.000000      0.000000      0.680000    -0.000000   -0.000000    3.054623
 Energy
         -6.660165290000
 PlusStress:  xx          yy          zz          yz          xz          xy
        -0.13018    -0.13018     1.93569    -0.00000    -0.00000     0.00000
 Feature   EFS_by	VASP
END_CFG

BEGIN_CFG
 Size
    2
 Supercell
        10.000000      0.000000      0.000000
         0.000000     10.000000      0.000000
         0.000000      0.000000     10.000000
 AtomData:  id type       cartes_x      cartes_y      cartes_z           fx          fy          fz
             1    0       0.000000      0.000000      0.000000     0.000000   -0.000000   -2.528933
             2    0       0.000000      0.000000      0.690000    -0.000000    0.000000    2.528933
 Energy
         -6.688052880000
 PlusStress:  xx          yy          zz          yz          xz          xy
        -0.12878    -0.12878     1.59974     0.00000     0.00000     0.00000
 Feature   EFS_by	VASP
END_CFG

BEGIN_CFG
 Size
    2
 Supercell
        10.000000      0.000000      0.000000
         0.000000     10.000000      0.000000
         0.000000      0.000000     10.000000
 AtomData:  id type       cartes_x      cartes_y      cartes_z           fx          fy          fz
             1    0       0.000000      0.000000      0.000000    -0.000000   -0.000000   -2.037817
             2    0       0.000000      0.000000      0.700000     0.000000    0.000000    2.037817
 Energy
         -6.710858490000
 PlusStress:  xx          yy          zz          yz          xz          xy
        -0.12749    -0.12749     1.27801     0.00000     0.00000     0.00000
 Feature   EFS_by	VASP
END_CFG

BEGIN_CFG
 Size
    2
 Supercell
        10.000000      0.000000      0.000000
         0.000000     10.000000      0.000000
         0.000000      0.000000     10.000000
 AtomData:  id type       cartes_x      cartes_y      cartes_z           fx          fy          fz
             1    0       0.000000      0.000000      0.000000     0.000000   -0.000000   -1.578768
             2    0       0.000000      0.000000      0.710000    -0.000000    0.000000    1.578768
 Energy
         -6.728915290000
 PlusStress:  xx          yy          zz          yz          xz          xy
        -0.12631    -0.12631     0.96978     0.00000     0.00000     0.00000
 Feature   EFS_by	VASP
END_CFG

BEGIN_CFG
 Size
    2
 Supercell
        10.000000      0.000000      0.000000
         0.000000     10.000000      0.000000
         0.000000      0.000000     10.000000
 AtomData:  id type       cartes_x      cartes_y      cartes_z           fx          fy          fz
             1    0       0.000000      0.000000      0.000000    -0.000000    0.000000   -1.149472
             2    0       0.000000      0.000000      0.720000     0.000000   -0.000000    1.149472
 Energy
         -6.742532380000
 PlusStress:  xx          yy          zz          yz          xz          xy
        -0.12523    -0.12523     0.67433     0.00000    -0.00000     0.00000
 Feature   EFS_by	VASP
END_CFG

BEGIN_CFG
 Size
    2
 Supercell
        10.000000      0.000000      0.000000
         0.000000     10.000000      0.000000
         0.000000      0.000000     10.000000
 AtomData:  id type       cartes_x      cartes_y      cartes_z           fx          fy          fz
             1    0       0.000000      0.000000      0.000000    -0.000000    0.000000   -0.747773
             2    0       0.000000      0.000000      0.730000     0.000000   -0.000000    0.747773
 Energy
         -6.751996090000
 PlusStress:  xx          yy          zz          yz          xz          xy
        -0.12421    -0.12421     0.39100     0.00000     0.00000     0.00000
 Feature   EFS_by	VASP
END_CFG

BEGIN_CFG
 Size
    2
 Supercell
        10.000000      0.000000      0.000000
         0.000000     10.000000      0.000000
         0.000000      0.000000     10.000000
 AtomData:  id type       cartes_x      cartes_y      cartes_z           fx          fy          fz
             1    0       0.000000      0.000000      0.000000    -0.000000    0.000000   -0.371739
             2    0       0.000000      0.000000      0.740000     0.000000   -0.000000    0.371739
 Energy
         -6.757572640000
 PlusStress:  xx          yy          zz          yz          xz          xy
        -0.12326    -0.12326     0.11920     0.00000    -0.00000     0.00000
 Feature   EFS_by	VASP
END_CFG

BEGIN_CFG
 Size
    2
 Supercell
        10.000000      0.000000      0.000000
         0.000000     10.000000      0.000000
         0.000000      0.000000     10.000000
 AtomData:  id type       cartes_x      cartes_y      cartes_z           fx          fy          fz
             1    0       0.000000      0.000000      0.000000     0.000000   -0.000000   -0.019574
             2    0       0.000000      0.000000      0.750000     0.000000    0.000000    0.019574
 Energy
         -6.759509680000
 PlusStress:  xx          yy          zz          yz          xz          xy
        -0.12236    -0.12236    -0.14167     0.00000     0.00000     0.00000
 Feature   EFS_by	VASP
END_CFG

BEGIN_CFG
 Size
    2
 Supercell
        10.000000      0.000000      0.000000
         0.000000     10.000000      0.000000
         0.000000      0.000000     10.000000
 AtomData:  id type       cartes_x      cartes_y      cartes_z           fx          fy          fz
             1    0       0.000000      0.000000      0.000000     0.000000    0.000000    0.310384
             2    0       0.000000      0.000000      0.760000    -0.000000   -0.000000   -0.310384
 Energy
         -6.758037530000
 PlusStress:  xx          yy          zz          yz          xz          xy
        -0.12150    -0.12150    -0.39218     0.00000    -0.00000     0.00000
 Feature   EFS_by	VASP
END_CFG

BEGIN_CFG
 Size
    2
 Supercell
        10.000000      0.000000      0.000000
         0.000000     10.000000      0.000000
         0.000000      0.000000     10.000000
 AtomData:  id type       cartes_x      cartes_y      cartes_z           fx          fy          fz
             1    0       0.000000      0.000000      0.000000     0.000000   -0.000000    0.619651
             2    0       0.000000      0.000000      0.770000    -0.000000    0.000000   -0.619651
 Energy
         -6.753370390000
 PlusStress:  xx          yy          zz          yz          xz          xy
        -0.12068    -0.12068    -0.63285     0.00000     0.00000     0.00000
 Feature   EFS_by	VASP
END_CFG

BEGIN_CFG
 Size
    2
 Supercell
        10.000000      0.000000      0.000000
         0.000000     10.000000      0.000000
         0.000000      0.000000     10.000000
 AtomData:  id type       cartes_x      cartes_y      cartes_z           fx          fy          fz
             1    0       0.000000      0.000000      0.000000     0.000000   -0.000000    0.909607
             2    0       0.000000      0.000000      0.780000    -0.000000    0.000000   -0.909607
 Energy
         -6.745708190000
 PlusStress:  xx          yy          zz          yz          xz          xy
        -0.11987    -0.11987    -0.86414     0.00000     0.00000     0.00000
 Feature   EFS_by	VASP
END_CFG

BEGIN_CFG
 Size
    2
 Supercell
        10.000000      0.000000      0.000000
         0.000000     10.000000      0.000000
         0.000000      0.000000     10.000000
 AtomData:  id type       cartes_x      cartes_y      cartes_z           fx          fy          fz
             1    0       0.000000      0.000000      0.000000    -0.000000    0.000000    1.181543
             2    0       0.000000      0.000000      0.790000     0.000000   -0.000000   -1.181543
 Energy
         -6.735237620000
 PlusStress:  xx          yy          zz          yz          xz          xy
        -0.11908    -0.11908    -1.08654     0.00000     0.00000     0.00000
 Feature   EFS_by	VASP
END_CFG

BEGIN_CFG
 Size
    2
 Supercell
        10.000000      0.000000      0.000000
         0.000000     10.000000      0.000000
         0.000000      0.000000     10.000000
 AtomData:  id type       cartes_x      cartes_y      cartes_z           fx          fy          fz
             1    0       0.000000      0.000000      0.000000     0.000000   -0.000000    1.436644
             2    0       0.000000      0.000000      0.800000    -0.000000    0.000000   -1.436644
 Energy
         -6.722132860000
 PlusStress:  xx          yy          zz          yz          xz          xy
        -0.11831    -0.11831    -1.30050    -0.00000     0.00000     0.00000
 Feature   EFS_by	VASP
END_CFG

BEGIN_CFG
 Size
    2
 Supercell
        10.000000      0.000000      0.000000
         0.000000     10.000000      0.000000
         0.000000      0.000000     10.000000
 AtomData:  id type       cartes_x      cartes_y      cartes_z           fx          fy          fz
             1    0       0.000000      0.000000      0.000000     0.000000    0.000000    1.675985
             2    0       0.000000      0.000000      0.810000    -0.000000   -0.000000   -1.675985
 Energy
         -6.706556470000
 PlusStress:  xx          yy          zz          yz          xz          xy
        -0.11753    -0.11753    -1.50638    -0.00000     0.00000     0.00000
 Feature   EFS_by	VASP
END_CFG

BEGIN_CFG
 Size
    2
 Supercell
        10.000000      0.000000      0.000000
         0.000000     10.000000      0.000000
         0.000000      0.000000     10.000000
 AtomData:  id type       cartes_x      cartes_y      cartes_z           fx          fy          fz
             1    0       0.000000      0.000000      0.000000     0.000000   -0.000000    1.900555
             2    0       0.000000      0.000000      0.820000    -0.000000    0.000000   -1.900555
 Energy
         -6.688661500000
 PlusStress:  xx          yy          zz          yz          xz          xy
        -0.11675    -0.11675    -1.70458     0.00000     0.00000     0.00000
 Feature   EFS_by	VASP
END_CFG

BEGIN_CFG
 Size
    2
 Supercell
        10.000000      0.000000      0.000000
         0.000000     10.000000      0.000000
         0.000000      0.000000     10.000000
 AtomData:  id type       cartes_x      cartes_y      cartes_z           fx          fy          fz
             1    0       0.000000      0.000000      0.000000     0.000000    0.000000    2.111287
             2    0       0.000000      0.000000      0.830000     0.000000   -0.000000   -2.111287
 Energy
         -6.668590830000
 PlusStress:  xx          yy          zz          yz          xz          xy
        -0.11596    -0.11596    -1.89549     0.00000     0.00000     0.00000
 Feature   EFS_by	VASP
END_CFG

BEGIN_CFG
 Size
    2
 Supercell
        10.000000      0.000000      0.000000
         0.000000     10.000000      0.000000
         0.000000      0.000000     10.000000
 AtomData:  id type       cartes_x      cartes_y      cartes_z           fx          fy          fz
             1    0       0.000000      0.000000      0.000000     0.000000   -0.000000    2.309029
             2    0       0.000000      0.000000      0.840000    -0.000000    0.000000   -2.309029
 Energy
         -6.646478450000
 PlusStress:  xx          yy          zz          yz          xz          xy
        -0.11517    -0.11517    -2.07943     0.00000     0.00000     0.00000
 Feature   EFS_by	VASP
END_CFG

BEGIN_CFG
 Size
    2
 Supercell
        10.000000      0.000000      0.000000
         0.000000     10.000000      0.000000
         0.000000      0.000000     10.000000
 AtomData:  id type       cartes_x      cartes_y      cartes_z           fx          fy          fz
             1    0       0.000000      0.000000      0.000000     0.000000   -0.000000    2.494546
             2    0       0.000000      0.000000      0.850000    -0.000000    0.000000   -2.494546
 Energy
         -6.622450540000
 PlusStress:  xx          yy          zz          yz          xz          xy
        -0.11438    -0.11438    -2.25669     0.00000     0.00000     0.00000
 Feature   EFS_by	VASP
END_CFG

